 ########################################################
 ### Generated supercell from supercell_generator.f90 ###
 ########################################################
 ### A site: N_FA=         108  N_MA=         108  N_vac_A=           0
 ### B site: N_Pb=         216  N_vac_B=           0
 ### X site: N_I=           0  N_Br=         624  N_vac_X=          24
 ### In order to have an electrically neutral supercell,...
 ### ... the charge of the Pb atoms have been adapted from    1.9713000059127808       to    1.8366333080662622      .
 ########################################################

        2568 atoms
        1512 bonds
        2268 angles
        1836 dihedrals
           0 impropers

           9 atom types
           6 bond types
           9 angle types
           3 dihedral types
           0 improper types

    0.   37.1999969     xlo xhi
    0.   37.1999969     ylo yhi
    0.   37.1999969     zlo zhi

 Masses

    1     12.0107     # C_FA
    2     12.0107     # C_MA
    3     14.0067     # N_FA
    4     14.0067     # N_MA
    5      1.00784    # Hc
    6      1.00784    # H
    7    207.1999969  # Pb
    8    126.9044724  # I
    9     79.904      # Br

 PairIJ Coeffs

    1 1    lj/cut/coul/long  .726298475638032E-02   .293898415565491E+01
    1 2    lj/cut/coul/long  0.005883187   2.871529341
    1 3    lj/cut/coul/long  .345860957168043E-02   .373773121833801E+01
    1 4    lj/cut/coul/long  0.002724422   3.529957414
    1 5    lj/cut/coul/long  .833105295896530E-02   .351796460151672E+01
    1 6    lj/cut/coul/long  .827814731746912E-02   .332371282577515E+01
    1 7    buck/coul/long    .457083450000000E+07   .132696032524109E+00   0.0
    1 8    buck/coul/long    .360008325000000E+07   .205857098102570E+00   0.0
    1 9    buck/coul/long    .200864312500000E+06   .215196788311005E+00   0.0
    2 2    lj/cut/coul/long  .450338935479522E-02   .280407452583313E+01
    2 3    lj/cut/coul/long  0.002724422   3.529957414
    2 4    lj/cut/coul/long  .199023424647748E-02   .332218360900879E+01
    2 5    lj/cut/coul/long  .694633973762393E-02   .128508806228638E+01
    2 6    lj/cut/coul/long  .628412561491132E-02   .247903823852539E+01
    2 7    buck/coul/long    .363338150000000E+07   .150162965059280E+00   0.0
    2 8    buck/coul/long    1.95388219E+07         .127370938658714E+00   0.0
    2 9    buck/coul/long    .424894900000000E+07   .148481830954552E+00   0.0
    3 3    lj/cut/coul/long  .477830553427339E-02   .162206435203552E+01
    3 4    lj/cut/coul/long  0.00331228   2.703923702
    3 5    lj/cut/coul/long  .891945790499449E-02   .215371847152710E+01
    3 6    lj/cut/coul/long  .589933060109615E-02   .288035917282104E+01
    3 7    buck/coul/long    .162363750000000E+06   .273676574230194E+00   0.0
    3 8    buck/coul/long    .440982850000000E+07   .209717854857445E+00   0.0
    3 9    buck/coul/long    .421567550000000E+07   .193627551198006E+00   0.0
    4 4    lj/cut/coul/long  .184625387191772E-02   .378578305244446E+01
    4 5    lj/cut/coul/long  .538311316631734E-03   .209479308128357E+01
    4 6    lj/cut/coul/long  .629052752628922E-03   .367158508300781E+01
    4 7    buck/coul/long    .313759472656250E+04   .173610970377922E+00   0.0
    4 8    buck/coul/long    6.86711300E+08         .182094484567642E+00   0.0
    4 9    buck/coul/long    .756402125000000E+06   .227456450462341E+00   0.0
    5 5    lj/cut/coul/long  0.004119149292819  1.54077172279358
    5 6    lj/cut/coul/long  0.002355335862376  2.07384824752808
    5 7    lj/cut/coul/long  0.001149660398369  3.67543077468872
    5 8    lj/cut/coul/long  0.006153138703667  2.62456190586090
    5 9    lj/cut/coul/long  0.003258874814492  2.92035710811615
    6 6    lj/cut/coul/long  0.001519462442957  2.04254823923111
    6 7    lj/cut/coul/long  0.003505575179588  2.05055630207061
    6 8    lj/cut/coul/long  0.006330601405352  1.28399240970612
    6 9    lj/cut/coul/long  0.002468593127560  1.40553331375122
    7 7    buck/coul/long    275061.2890625     0.378808081150055    0.0
    7 8    buck/coul/long    487463.0625        0.219516642391682    0.0
    7 9    buck/coul/long    359188.734375      0.216951519250870    0.0
    8 8    buck/coul/long    2573833.921875     0.109395656734705    0.0
    8 9    buck/coul/long    2293887.46875      0.216704219579697    0.0
    9 9    buck/coul/long    588382.5625        0.158224053680897    0.0

 Bond Coeffs

    1  64.1318     1.3109  # C N    FA
    2  16.5373     1.0922  # C Hc   FA
    3  20.4670     1.0201  # N H    FA
    4  25.4627536  1.499   # C N    MA
    5  29.3740962  1.091   # C Hc   MA
    6  32.0018940  1.033   # N H    MA

 Angle Coeffs

    1  2.5600670   124.7844  # N  C  N               FA
    2  1.8682451   117.6078  # N  C  Hc              FA
    3  1.6852451   116.3516  # H  N  C (up Hs)       FA
    4  1.6203949   124.9374  # H  N  C (down Hs)     FA
    5  1.5198885   118.7110  # H  N  H               FA
    6  4.2495740   107.91    # Hc C  N               MA
    7  4.0067412   110.11    # C  N  H               MA
    8  3.3823140   110.74    # Hc C  Hc              MA
    9  3.5124030   108.11    # H  N  H               MA

 Dihedral Coeffs

    1  0.0755     2   180   0.0 # H  N  C  N    FA  # N type K n phi_0 weight_factor(always 0 for me)
    2  0.1450     2   180   0.0 # H  N  C  Hc   FA
    3  0.0067473  3     0   0.0 #               MA

 Atoms

           1   0  7    1.8366333080662622        0.00000000       0.00000000       0.00000000    
           2   0  7    1.8366333080662622        0.00000000       0.00000000       6.19999981    
           3   0  7    1.8366333080662622        0.00000000       0.00000000       12.3999996    
           4   0  7    1.8366333080662622        0.00000000       0.00000000       18.5999985    
           5   0  7    1.8366333080662622        0.00000000       0.00000000       24.7999992    
           6   0  7    1.8366333080662622        0.00000000       0.00000000       31.0000000    
           7   0  7    1.8366333080662622        0.00000000       6.19999981       0.00000000    
           8   0  7    1.8366333080662622        0.00000000       6.19999981       6.19999981    
           9   0  7    1.8366333080662622        0.00000000       6.19999981       12.3999996    
          10   0  7    1.8366333080662622        0.00000000       6.19999981       18.5999985    
          11   0  7    1.8366333080662622        0.00000000       6.19999981       24.7999992    
          12   0  7    1.8366333080662622        0.00000000       6.19999981       31.0000000    
          13   0  7    1.8366333080662622        0.00000000       12.3999996       0.00000000    
          14   0  7    1.8366333080662622        0.00000000       12.3999996       6.19999981    
          15   0  7    1.8366333080662622        0.00000000       12.3999996       12.3999996    
          16   0  7    1.8366333080662622        0.00000000       12.3999996       18.5999985    
          17   0  7    1.8366333080662622        0.00000000       12.3999996       24.7999992    
          18   0  7    1.8366333080662622        0.00000000       12.3999996       31.0000000    
          19   0  7    1.8366333080662622        0.00000000       18.5999985       0.00000000    
          20   0  7    1.8366333080662622        0.00000000       18.5999985       6.19999981    
          21   0  7    1.8366333080662622        0.00000000       18.5999985       12.3999996    
          22   0  7    1.8366333080662622        0.00000000       18.5999985       18.5999985    
          23   0  7    1.8366333080662622        0.00000000       18.5999985       24.7999992    
          24   0  7    1.8366333080662622        0.00000000       18.5999985       31.0000000    
          25   0  7    1.8366333080662622        0.00000000       24.7999992       0.00000000    
          26   0  7    1.8366333080662622        0.00000000       24.7999992       6.19999981    
          27   0  7    1.8366333080662622        0.00000000       24.7999992       12.3999996    
          28   0  7    1.8366333080662622        0.00000000       24.7999992       18.5999985    
          29   0  7    1.8366333080662622        0.00000000       24.7999992       24.7999992    
          30   0  7    1.8366333080662622        0.00000000       24.7999992       31.0000000    
          31   0  7    1.8366333080662622        0.00000000       31.0000000       0.00000000    
          32   0  7    1.8366333080662622        0.00000000       31.0000000       6.19999981    
          33   0  7    1.8366333080662622        0.00000000       31.0000000       12.3999996    
          34   0  7    1.8366333080662622        0.00000000       31.0000000       18.5999985    
          35   0  7    1.8366333080662622        0.00000000       31.0000000       24.7999992    
          36   0  7    1.8366333080662622        0.00000000       31.0000000       31.0000000    
          37   0  7    1.8366333080662622        6.19999981       0.00000000       0.00000000    
          38   0  7    1.8366333080662622        6.19999981       0.00000000       6.19999981    
          39   0  7    1.8366333080662622        6.19999981       0.00000000       12.3999996    
          40   0  7    1.8366333080662622        6.19999981       0.00000000       18.5999985    
          41   0  7    1.8366333080662622        6.19999981       0.00000000       24.7999992    
          42   0  7    1.8366333080662622        6.19999981       0.00000000       31.0000000    
          43   0  7    1.8366333080662622        6.19999981       6.19999981       0.00000000    
          44   0  7    1.8366333080662622        6.19999981       6.19999981       6.19999981    
          45   0  7    1.8366333080662622        6.19999981       6.19999981       12.3999996    
          46   0  7    1.8366333080662622        6.19999981       6.19999981       18.5999985    
          47   0  7    1.8366333080662622        6.19999981       6.19999981       24.7999992    
          48   0  7    1.8366333080662622        6.19999981       6.19999981       31.0000000    
          49   0  7    1.8366333080662622        6.19999981       12.3999996       0.00000000    
          50   0  7    1.8366333080662622        6.19999981       12.3999996       6.19999981    
          51   0  7    1.8366333080662622        6.19999981       12.3999996       12.3999996    
          52   0  7    1.8366333080662622        6.19999981       12.3999996       18.5999985    
          53   0  7    1.8366333080662622        6.19999981       12.3999996       24.7999992    
          54   0  7    1.8366333080662622        6.19999981       12.3999996       31.0000000    
          55   0  7    1.8366333080662622        6.19999981       18.5999985       0.00000000    
          56   0  7    1.8366333080662622        6.19999981       18.5999985       6.19999981    
          57   0  7    1.8366333080662622        6.19999981       18.5999985       12.3999996    
          58   0  7    1.8366333080662622        6.19999981       18.5999985       18.5999985    
          59   0  7    1.8366333080662622        6.19999981       18.5999985       24.7999992    
          60   0  7    1.8366333080662622        6.19999981       18.5999985       31.0000000    
          61   0  7    1.8366333080662622        6.19999981       24.7999992       0.00000000    
          62   0  7    1.8366333080662622        6.19999981       24.7999992       6.19999981    
          63   0  7    1.8366333080662622        6.19999981       24.7999992       12.3999996    
          64   0  7    1.8366333080662622        6.19999981       24.7999992       18.5999985    
          65   0  7    1.8366333080662622        6.19999981       24.7999992       24.7999992    
          66   0  7    1.8366333080662622        6.19999981       24.7999992       31.0000000    
          67   0  7    1.8366333080662622        6.19999981       31.0000000       0.00000000    
          68   0  7    1.8366333080662622        6.19999981       31.0000000       6.19999981    
          69   0  7    1.8366333080662622        6.19999981       31.0000000       12.3999996    
          70   0  7    1.8366333080662622        6.19999981       31.0000000       18.5999985    
          71   0  7    1.8366333080662622        6.19999981       31.0000000       24.7999992    
          72   0  7    1.8366333080662622        6.19999981       31.0000000       31.0000000    
          73   0  7    1.8366333080662622        12.3999996       0.00000000       0.00000000    
          74   0  7    1.8366333080662622        12.3999996       0.00000000       6.19999981    
          75   0  7    1.8366333080662622        12.3999996       0.00000000       12.3999996    
          76   0  7    1.8366333080662622        12.3999996       0.00000000       18.5999985    
          77   0  7    1.8366333080662622        12.3999996       0.00000000       24.7999992    
          78   0  7    1.8366333080662622        12.3999996       0.00000000       31.0000000    
          79   0  7    1.8366333080662622        12.3999996       6.19999981       0.00000000    
          80   0  7    1.8366333080662622        12.3999996       6.19999981       6.19999981    
          81   0  7    1.8366333080662622        12.3999996       6.19999981       12.3999996    
          82   0  7    1.8366333080662622        12.3999996       6.19999981       18.5999985    
          83   0  7    1.8366333080662622        12.3999996       6.19999981       24.7999992    
          84   0  7    1.8366333080662622        12.3999996       6.19999981       31.0000000    
          85   0  7    1.8366333080662622        12.3999996       12.3999996       0.00000000    
          86   0  7    1.8366333080662622        12.3999996       12.3999996       6.19999981    
          87   0  7    1.8366333080662622        12.3999996       12.3999996       12.3999996    
          88   0  7    1.8366333080662622        12.3999996       12.3999996       18.5999985    
          89   0  7    1.8366333080662622        12.3999996       12.3999996       24.7999992    
          90   0  7    1.8366333080662622        12.3999996       12.3999996       31.0000000    
          91   0  7    1.8366333080662622        12.3999996       18.5999985       0.00000000    
          92   0  7    1.8366333080662622        12.3999996       18.5999985       6.19999981    
          93   0  7    1.8366333080662622        12.3999996       18.5999985       12.3999996    
          94   0  7    1.8366333080662622        12.3999996       18.5999985       18.5999985    
          95   0  7    1.8366333080662622        12.3999996       18.5999985       24.7999992    
          96   0  7    1.8366333080662622        12.3999996       18.5999985       31.0000000    
          97   0  7    1.8366333080662622        12.3999996       24.7999992       0.00000000    
          98   0  7    1.8366333080662622        12.3999996       24.7999992       6.19999981    
          99   0  7    1.8366333080662622        12.3999996       24.7999992       12.3999996    
         100   0  7    1.8366333080662622        12.3999996       24.7999992       18.5999985    
         101   0  7    1.8366333080662622        12.3999996       24.7999992       24.7999992    
         102   0  7    1.8366333080662622        12.3999996       24.7999992       31.0000000    
         103   0  7    1.8366333080662622        12.3999996       31.0000000       0.00000000    
         104   0  7    1.8366333080662622        12.3999996       31.0000000       6.19999981    
         105   0  7    1.8366333080662622        12.3999996       31.0000000       12.3999996    
         106   0  7    1.8366333080662622        12.3999996       31.0000000       18.5999985    
         107   0  7    1.8366333080662622        12.3999996       31.0000000       24.7999992    
         108   0  7    1.8366333080662622        12.3999996       31.0000000       31.0000000    
         109   0  7    1.8366333080662622        18.5999985       0.00000000       0.00000000    
         110   0  7    1.8366333080662622        18.5999985       0.00000000       6.19999981    
         111   0  7    1.8366333080662622        18.5999985       0.00000000       12.3999996    
         112   0  7    1.8366333080662622        18.5999985       0.00000000       18.5999985    
         113   0  7    1.8366333080662622        18.5999985       0.00000000       24.7999992    
         114   0  7    1.8366333080662622        18.5999985       0.00000000       31.0000000    
         115   0  7    1.8366333080662622        18.5999985       6.19999981       0.00000000    
         116   0  7    1.8366333080662622        18.5999985       6.19999981       6.19999981    
         117   0  7    1.8366333080662622        18.5999985       6.19999981       12.3999996    
         118   0  7    1.8366333080662622        18.5999985       6.19999981       18.5999985    
         119   0  7    1.8366333080662622        18.5999985       6.19999981       24.7999992    
         120   0  7    1.8366333080662622        18.5999985       6.19999981       31.0000000    
         121   0  7    1.8366333080662622        18.5999985       12.3999996       0.00000000    
         122   0  7    1.8366333080662622        18.5999985       12.3999996       6.19999981    
         123   0  7    1.8366333080662622        18.5999985       12.3999996       12.3999996    
         124   0  7    1.8366333080662622        18.5999985       12.3999996       18.5999985    
         125   0  7    1.8366333080662622        18.5999985       12.3999996       24.7999992    
         126   0  7    1.8366333080662622        18.5999985       12.3999996       31.0000000    
         127   0  7    1.8366333080662622        18.5999985       18.5999985       0.00000000    
         128   0  7    1.8366333080662622        18.5999985       18.5999985       6.19999981    
         129   0  7    1.8366333080662622        18.5999985       18.5999985       12.3999996    
         130   0  7    1.8366333080662622        18.5999985       18.5999985       18.5999985    
         131   0  7    1.8366333080662622        18.5999985       18.5999985       24.7999992    
         132   0  7    1.8366333080662622        18.5999985       18.5999985       31.0000000    
         133   0  7    1.8366333080662622        18.5999985       24.7999992       0.00000000    
         134   0  7    1.8366333080662622        18.5999985       24.7999992       6.19999981    
         135   0  7    1.8366333080662622        18.5999985       24.7999992       12.3999996    
         136   0  7    1.8366333080662622        18.5999985       24.7999992       18.5999985    
         137   0  7    1.8366333080662622        18.5999985       24.7999992       24.7999992    
         138   0  7    1.8366333080662622        18.5999985       24.7999992       31.0000000    
         139   0  7    1.8366333080662622        18.5999985       31.0000000       0.00000000    
         140   0  7    1.8366333080662622        18.5999985       31.0000000       6.19999981    
         141   0  7    1.8366333080662622        18.5999985       31.0000000       12.3999996    
         142   0  7    1.8366333080662622        18.5999985       31.0000000       18.5999985    
         143   0  7    1.8366333080662622        18.5999985       31.0000000       24.7999992    
         144   0  7    1.8366333080662622        18.5999985       31.0000000       31.0000000    
         145   0  7    1.8366333080662622        24.7999992       0.00000000       0.00000000    
         146   0  7    1.8366333080662622        24.7999992       0.00000000       6.19999981    
         147   0  7    1.8366333080662622        24.7999992       0.00000000       12.3999996    
         148   0  7    1.8366333080662622        24.7999992       0.00000000       18.5999985    
         149   0  7    1.8366333080662622        24.7999992       0.00000000       24.7999992    
         150   0  7    1.8366333080662622        24.7999992       0.00000000       31.0000000    
         151   0  7    1.8366333080662622        24.7999992       6.19999981       0.00000000    
         152   0  7    1.8366333080662622        24.7999992       6.19999981       6.19999981    
         153   0  7    1.8366333080662622        24.7999992       6.19999981       12.3999996    
         154   0  7    1.8366333080662622        24.7999992       6.19999981       18.5999985    
         155   0  7    1.8366333080662622        24.7999992       6.19999981       24.7999992    
         156   0  7    1.8366333080662622        24.7999992       6.19999981       31.0000000    
         157   0  7    1.8366333080662622        24.7999992       12.3999996       0.00000000    
         158   0  7    1.8366333080662622        24.7999992       12.3999996       6.19999981    
         159   0  7    1.8366333080662622        24.7999992       12.3999996       12.3999996    
         160   0  7    1.8366333080662622        24.7999992       12.3999996       18.5999985    
         161   0  7    1.8366333080662622        24.7999992       12.3999996       24.7999992    
         162   0  7    1.8366333080662622        24.7999992       12.3999996       31.0000000    
         163   0  7    1.8366333080662622        24.7999992       18.5999985       0.00000000    
         164   0  7    1.8366333080662622        24.7999992       18.5999985       6.19999981    
         165   0  7    1.8366333080662622        24.7999992       18.5999985       12.3999996    
         166   0  7    1.8366333080662622        24.7999992       18.5999985       18.5999985    
         167   0  7    1.8366333080662622        24.7999992       18.5999985       24.7999992    
         168   0  7    1.8366333080662622        24.7999992       18.5999985       31.0000000    
         169   0  7    1.8366333080662622        24.7999992       24.7999992       0.00000000    
         170   0  7    1.8366333080662622        24.7999992       24.7999992       6.19999981    
         171   0  7    1.8366333080662622        24.7999992       24.7999992       12.3999996    
         172   0  7    1.8366333080662622        24.7999992       24.7999992       18.5999985    
         173   0  7    1.8366333080662622        24.7999992       24.7999992       24.7999992    
         174   0  7    1.8366333080662622        24.7999992       24.7999992       31.0000000    
         175   0  7    1.8366333080662622        24.7999992       31.0000000       0.00000000    
         176   0  7    1.8366333080662622        24.7999992       31.0000000       6.19999981    
         177   0  7    1.8366333080662622        24.7999992       31.0000000       12.3999996    
         178   0  7    1.8366333080662622        24.7999992       31.0000000       18.5999985    
         179   0  7    1.8366333080662622        24.7999992       31.0000000       24.7999992    
         180   0  7    1.8366333080662622        24.7999992       31.0000000       31.0000000    
         181   0  7    1.8366333080662622        31.0000000       0.00000000       0.00000000    
         182   0  7    1.8366333080662622        31.0000000       0.00000000       6.19999981    
         183   0  7    1.8366333080662622        31.0000000       0.00000000       12.3999996    
         184   0  7    1.8366333080662622        31.0000000       0.00000000       18.5999985    
         185   0  7    1.8366333080662622        31.0000000       0.00000000       24.7999992    
         186   0  7    1.8366333080662622        31.0000000       0.00000000       31.0000000    
         187   0  7    1.8366333080662622        31.0000000       6.19999981       0.00000000    
         188   0  7    1.8366333080662622        31.0000000       6.19999981       6.19999981    
         189   0  7    1.8366333080662622        31.0000000       6.19999981       12.3999996    
         190   0  7    1.8366333080662622        31.0000000       6.19999981       18.5999985    
         191   0  7    1.8366333080662622        31.0000000       6.19999981       24.7999992    
         192   0  7    1.8366333080662622        31.0000000       6.19999981       31.0000000    
         193   0  7    1.8366333080662622        31.0000000       12.3999996       0.00000000    
         194   0  7    1.8366333080662622        31.0000000       12.3999996       6.19999981    
         195   0  7    1.8366333080662622        31.0000000       12.3999996       12.3999996    
         196   0  7    1.8366333080662622        31.0000000       12.3999996       18.5999985    
         197   0  7    1.8366333080662622        31.0000000       12.3999996       24.7999992    
         198   0  7    1.8366333080662622        31.0000000       12.3999996       31.0000000    
         199   0  7    1.8366333080662622        31.0000000       18.5999985       0.00000000    
         200   0  7    1.8366333080662622        31.0000000       18.5999985       6.19999981    
         201   0  7    1.8366333080662622        31.0000000       18.5999985       12.3999996    
         202   0  7    1.8366333080662622        31.0000000       18.5999985       18.5999985    
         203   0  7    1.8366333080662622        31.0000000       18.5999985       24.7999992    
         204   0  7    1.8366333080662622        31.0000000       18.5999985       31.0000000    
         205   0  7    1.8366333080662622        31.0000000       24.7999992       0.00000000    
         206   0  7    1.8366333080662622        31.0000000       24.7999992       6.19999981    
         207   0  7    1.8366333080662622        31.0000000       24.7999992       12.3999996    
         208   0  7    1.8366333080662622        31.0000000       24.7999992       18.5999985    
         209   0  7    1.8366333080662622        31.0000000       24.7999992       24.7999992    
         210   0  7    1.8366333080662622        31.0000000       24.7999992       31.0000000    
         211   0  7    1.8366333080662622        31.0000000       31.0000000       0.00000000    
         212   0  7    1.8366333080662622        31.0000000       31.0000000       6.19999981    
         213   0  7    1.8366333080662622        31.0000000       31.0000000       12.3999996    
         214   0  7    1.8366333080662622        31.0000000       31.0000000       18.5999985    
         215   0  7    1.8366333080662622        31.0000000       31.0000000       24.7999992    
         216   0  7    1.8366333080662622        31.0000000       31.0000000       31.0000000    
         217           1   1   0.97170001268386841        3.09999990       3.52786207       3.09999990    
         218           1   3   -1.2734999656677246        4.23416567       2.94673586       3.09999990    
         219           1   3   -1.2734999656677246        1.96583402       2.94673586       3.09999990    
         220           1   5   0.28000000119209290        3.09999990       4.59680367       3.09999990    
         221           1   6   0.74000000953674316        5.04680014       3.51930594       3.09999990    
         222           1   6   0.74000000953674316        4.36771393       1.95473588       3.09999990    
         223           1   6   0.74000000953674316        1.83234799       1.95473588       3.09999990    
         224           1   6   0.74000000953674316        1.15313804       3.51930594       3.09999990    
         225           2   1   0.97170001268386841        3.09999990       3.52786207       9.29999924    
         226           2   3   -1.2734999656677246        4.23416567       2.94673586       9.29999924    
         227           2   3   -1.2734999656677246        1.96583402       2.94673586       9.29999924    
         228           2   5   0.28000000119209290        3.09999990       4.59680367       9.29999924    
         229           2   6   0.74000000953674316        5.04680014       3.51930594       9.29999924    
         230           2   6   0.74000000953674316        4.36771393       1.95473588       9.29999924    
         231           2   6   0.74000000953674316        1.83234799       1.95473588       9.29999924    
         232           2   6   0.74000000953674316        1.15313804       3.51930594       9.29999924    
         233           3   1   0.97170001268386841        3.09999990       3.52786207       15.5000000    
         234           3   3   -1.2734999656677246        4.23416567       2.94673586       15.5000000    
         235           3   3   -1.2734999656677246        1.96583402       2.94673586       15.5000000    
         236           3   5   0.28000000119209290        3.09999990       4.59680367       15.5000000    
         237           3   6   0.74000000953674316        5.04680014       3.51930594       15.5000000    
         238           3   6   0.74000000953674316        4.36771393       1.95473588       15.5000000    
         239           3   6   0.74000000953674316        1.83234799       1.95473588       15.5000000    
         240           3   6   0.74000000953674316        1.15313804       3.51930594       15.5000000    
         241           4   2  -0.44220000505447388        2.64119983       3.09999990       21.6014175    
         242           4   4  -0.95310002565383911        4.05548191       3.09999990       21.9904690    
         243           4   5   0.28000000119209290        2.55873990       3.09999990       20.4723988    
         244           4   5   0.28000000119209290        2.18549991       4.04494190       22.0312023    
         245           4   5   0.28000000119209290        2.18425989       2.15698004       22.0323181    
         246           4   6   0.74000000953674316        4.53976393       3.98244572       21.6187782    
         247           4   6   0.74000000953674316        4.53895807       2.21526003       21.6187782    